# vtk DataFile Version 3.0
vtk output
ASCII
DATASET POLYDATA
POINTS 2562 float
-53.158456 5.441529 45.992446
-6.237944 38.715704 42.873110
-46.688635 -79.697072 43.311537
-13.488467 -99.498074 47.805603
-22.030026 -56.914917 82.559047
-26.978379 -15.580676 72.090989
-42.586156 -74.173765 2.558584
-34.519026 -14.379787 13.117048
-10.747131 -50.023697 28.564091
-15.000373 -34.969009 66.818143
-60.859221 -35.098990 34.399630
-56.872572 -38.369550 58.472482
-28.159266 -40.956247 94.233085
-40.635312 -20.253876 3.037521
-33.049161 35.277671 41.507672
-31.885096 -86.067085 33.570684
-50.031158 -82.570101 25.561681
-27.050457 -69.573135 66.517002
-24.856611 14.745556 35.816860
-49.326664 4.905804 63.673394
-64.759599 -36.578155 10.398106
-44.300813 -51.619081 80.470628
-53.113374 -3.660502 22.474507
-50.821787 -23.744567 72.339746
-57.424026 -59.701287 31.492023
-55.230807 -58.794396 62.450894
-33.249315 -24.471807 43.202591
-57.096075 -8.799123 44.890734
-1.564703 -41.705583 54.604616
-51.246111 -50.175452 45.073537
-21.920347 -77.627472 33.917583
-12.488709 -67.938092 60.941116
0.148554 -1.861031 34.865696
-6.943844 5.049864 63.066257
-28.347227 -69.310128 13.387533
-5.116578 -61.645207 85.699835
-33.944041 -37.444264 20.539938
-9.751173 -14.672579 90.697060
-13.610145 -100.692915 5.654107
-16.306448 -85.194217 81.032139
-15.348925 22.910795 16.111434
-21.243119 23.298585 69.215563
-17.692360 -54.335844 81.875737
-45.693456 -44.868964 6.012182
-31.321454 12.827412 21.769676
-29.736843 11.033329 58.087837
-31.777864 -92.601142 8.721527
-30.123782 -81.372564 71.695602
-22.413728 -29.921850 74.294791
-31.552958 -4.331669 -1.251406
-49.653396 -70.696119 36.871153
-45.295150 -75.409932 60.789409
-41.533346 -4.984589 41.158674
-50.652190 -3.468516 44.638176
-2.355926 20.645458 70.061779
-5.215795 13.296158 21.247894
-7.612026 -75.085689 66.293916
-3.844336 -80.933065 23.660657
-51.985279 -31.177236 21.769686
-53.135994 -41.745589 71.663141
-57.277347 -20.990120 29.522847
-41.880603 -31.351782 56.248042
-38.718626 -76.045109 14.610970
-34.222127 -68.898561 79.565806
-31.280529 -84.627406 58.805576
-33.283100 -88.904177 29.456198
-40.924480 27.340527 50.628133
-40.978036 26.346813 25.247435
-31.536320 -2.519797 24.057572
-32.734585 1.028661 78.469946
-17.409538 4.437904 79.107668
-14.614740 -13.349327 22.097042
-6.454136 -78.099949 87.072351
-5.758896 -89.004401 3.465617
-41.311647 -42.533402 32.070393
-57.507067 -23.850722 52.355165
-68.999448 -43.464595 31.291881
-53.658993 -47.874929 50.335315
-46.874645 25.657281 39.314945
-34.990922 -84.744487 44.702201
-1.261466 -46.230218 38.237685
-4.138552 -35.717267 63.551647
-37.370882 -45.035545 10.978002
-11.093125 -49.313492 97.382019
-29.996791 -75.594751 11.747901
-14.819609 -61.932609 98.403507
-39.433804 -26.286600 16.366990
-25.673187 -11.183121 88.132019
-27.937884 -26.609624 4.612951
-14.277983 -27.514328 86.095950
-33.778495 -74.030510 47.924977
-42.979882 -78.034570 35.670350
-35.888337 8.466322 50.111361
-38.511489 6.712200 34.029924
-3.587674 -79.103799 44.265190
-3.087648 12.896556 48.808730
-36.109325 -41.997621 47.597451
-56.008684 -32.332254 44.703572
-55.444969 -59.571702 39.884329
-63.376405 -57.934049 48.800204
-4.560361 -2.631771 81.470219
-2.193266 -22.705509 19.372953
-5.556235 -63.463108 74.057306
-10.107548 -66.245548 23.507976
-38.516857 -41.702908 64.328160
-64.478688 -12.650710 16.158219
-3.001933 -36.137350 88.808293
-22.073689 -44.333329 11.679175
-55.268018 -16.630355 58.155442
-41.776688 -31.281226 21.864140
-39.643763 -47.857819 56.607746
-61.363315 -49.333779 17.964978
0.079050 -24.176325 45.265004
-5.197150 -17.554425 60.649981
-7.846057 -60.709267 40.429792
-4.909073 -53.201231 56.088355
-56.479380 -73.218182 50.279924
-50.191581 -17.426524 40.021119
-17.766732 -90.500900 67.828942
-13.339792 -92.565770 23.091086
-9.479980 41.309647 56.696762
-3.715024 42.772708 19.989927
-54.128044 -27.380887 4.747426
-27.144251 -46.876293 71.806424
-59.566311 -58.359986 7.201629
-37.094510 -56.195067 84.725144
-39.923296 2.849257 12.053403
-36.415901 -25.563657 83.475040
-47.907293 -3.266629 1.287871
-39.747368 -35.009726 83.335841
-41.923628 -50.465486 30.121471
-61.497072 -37.236365 45.712417
-18.928006 48.495558 38.537550
-22.525938 -96.222654 35.316613
-4.267584 -30.510039 30.333897
-10.949912 -13.887876 67.879685
-15.761471 -62.988363 27.830751
-8.059250 -55.799370 67.108775
-40.580975 -14.164533 71.120769
-38.251515 -14.622164 22.214326
-32.803543 -60.087401 68.452023
-62.142879 -69.788041 10.269328
-23.480395 -91.421478 9.526795
-16.066695 -69.558528 74.839087
-20.960957 -78.177479 56.133429
-19.240033 -103.072192 23.574789
-25.347167 29.638076 55.841272
-23.680145 38.889266 27.290171
-23.365470 0.444361 18.999856
-19.978410 2.309325 68.549363
-22.135362 -56.094446 17.434574
-11.686415 -49.902654 73.015185
-23.725444 -45.344827 21.288787
-5.671970 -24.947477 81.086591
-34.996766 -10.384299 53.840614
-31.317915 -8.648629 42.085815
-39.269552 -57.325520 53.835161
-54.866152 -66.430086 24.115141
-11.463274 -90.396296 40.593215
-5.583155 -84.844706 60.488293
-2.604837 28.151972 32.300937
-5.409461 24.174340 52.076496
-38.494818 -86.343514 4.958634
-24.583325 -65.738370 73.451688
-26.551026 -0.803823 21.404459
-30.914516 3.002429 69.627334
-23.372870 -19.842871 74.662731
-27.589991 -8.470642 9.845857
-25.273724 -34.703188 89.599337
-33.247808 -13.253059 -4.229337
-38.571698 40.231852 29.126766
-34.217719 27.061167 56.125717
-28.907910 -99.387457 19.283814
-27.222020 -77.237130 55.004876
-21.806878 -48.154746 84.743758
-45.004311 -31.853758 14.329391
-21.739540 -53.104176 92.582481
-40.941523 -60.261267 7.435607
-45.981170 -66.487777 48.073799
-49.917874 1.924719 34.778773
-13.119824 -83.154174 48.745197
-2.535071 29.444138 41.650750
-52.774056 -63.458293 55.170414
-55.972008 -65.833180 43.239323
-53.496756 -25.799350 44.206206
-44.830652 -29.323666 47.877725
-50.569088 -57.726863 56.858108
-54.345193 -64.330211 27.006310
-47.239778 -15.681539 49.529735
-36.290000 -20.250576 41.494346
-26.780739 -23.992763 92.991885
-27.356129 -25.725832 8.308661
-7.023387 -59.429701 92.481766
-37.517531 -61.181233 11.775243
-3.359033 -18.051216 33.008033
-11.429907 -5.222064 68.015569
-16.592882 -71.639538 29.552397
-9.132253 -61.711749 62.186008
-52.903671 -35.463235 8.795853
-22.792350 -53.454190 75.530340
-43.929442 -13.548125 -2.605436
-34.045454 -34.859397 91.055109
-48.945880 -19.383748 4.677670
-24.006398 -43.464447 81.866545
-35.275560 -4.186992 1.642489
-30.906741 -33.427615 78.262657
-7.956047 -37.001042 57.919022
-0.251788 -43.853017 48.124964
-7.865127 -70.033749 71.789899
-7.032228 -76.835730 27.887826
-5.153548 11.437813 78.978414
-4.759798 -6.505794 24.554108
-29.180617 -54.740857 21.274426
-7.644565 -49.238969 84.693457
-30.817159 -42.227370 16.534923
-11.064272 -25.490159 93.744837
-56.231347 -25.200704 23.942056
-50.082458 -37.093408 64.472150
-31.120731 -77.772192 71.331400
-43.392213 -92.018008 16.203886
-38.130034 12.037620 69.282189
-34.071496 11.973964 26.340939
-9.682105 -70.651827 54.534546
-16.711377 -85.516505 34.873497
-4.054429 14.941170 58.409524
-3.804383 14.327504 32.678231
-43.085800 -22.275669 46.784055
-57.425116 -11.785203 35.938618
-61.781725 -70.578952 38.012363
-55.072946 -67.937123 61.085130
-26.256723 -15.691586 4.227291
-19.405720 -22.252862 83.753873
-38.203652 -78.877598 5.840502
-15.665481 -58.487075 89.353135
-41.033977 -18.698142 10.821943
-20.964362 -12.259511 78.112167
-35.669136 -59.820280 6.172668
-14.246924 -54.181820 93.033652
-38.694491 2.739292 43.831307
-49.070809 1.122918 56.569333
-55.129674 -80.234150 32.466098
-40.417503 -70.068518 52.233880
-31.608363 -39.330304 78.150525
-55.549807 -10.878096 -3.409031
-49.552263 -73.974676 10.157150
-34.540846 -66.186182 75.698451
-36.491872 -7.646686 25.168775
-38.775272 -9.444751 74.330118
-46.753629 -1.361571 49.903428
-42.001198 1.555267 39.516259
-46.540864 -73.432876 44.986289
-44.694896 -72.128774 36.153270
-4.962394 -12.795352 64.322593
-3.078629 -26.071767 39.075393
-6.742258 -54.162485 62.139445
-8.978966 -63.285064 31.615211
-7.670899 2.968579 23.169246
-10.783733 18.218624 78.494717
-15.191409 -86.401540 17.227596
-9.190758 -74.288050 75.920088
-16.601798 -24.610815 94.388183
-29.171699 -33.515250 12.235292
-2.575831 -55.926112 92.341812
-32.080932 -56.968895 13.829932
-15.941406 -46.008354 22.138539
-6.806760 -30.353957 73.135537
-15.839186 -54.229694 25.040408
-14.297376 -43.131046 68.788678
-49.382648 -54.994470 32.591803
-65.769035 -48.611170 44.170741
-35.458985 -51.821791 42.896258
-54.650670 -36.917558 52.923491
-37.354332 -94.290280 41.614395
-36.096236 -91.180402 54.658622
-46.481041 26.012398 33.529927
-37.244878 26.579647 45.488942
-63.236740 -71.471130 31.449346
-40.999175 -66.874793 57.474344
-34.353008 -7.217808 45.972602
-44.033596 -7.790365 51.225981
-57.468292 -5.796628 4.592461
-39.284940 -38.283487 74.578371
-56.117534 -19.987161 8.359219
-32.105276 -46.610171 69.094126
-14.241967 47.406532 39.220315
-15.208005 -97.565092 41.342269
-22.172012 -93.455122 54.071247
-9.420415 -97.890173 30.979196
-15.012272 43.568483 47.180203
-7.620229 49.286460 31.367803
-25.508363 -72.696328 21.827571
-8.191182 -62.382524 66.194678
-2.948817 -27.949274 23.783303
-7.474480 -7.955105 76.036984
-7.728441 -98.847564 7.350580
-15.773640 -78.096000 80.497804
-15.282050 7.496764 21.567701
-23.544881 16.664890 77.844533
-37.114422 7.527871 57.880705
-33.263273 14.470269 38.167585
-28.862786 -70.004188 55.897271
-39.861641 -75.241653 27.406909
-55.785943 -40.623808 17.275031
-46.997257 -45.406755 65.982570
-50.712119 -25.178539 29.993243
-50.074971 -24.043701 58.861156
-49.614072 -7.269040 31.730077
-43.495683 -12.023139 37.112258
-52.353336 -74.663396 56.840632
-53.795806 -69.637224 43.230573
-59.171027 -51.764988 41.634283
-46.961139 -55.047157 42.301868
-50.850273 -39.554648 42.944726
-42.984701 -46.581388 46.053144
-44.395600 -77.865839 51.736495
[...]
POINT_DATA 2562
FIELD ScalarData 1
H 1 2562 float
0.184733
-0.025314
-0.163569
-0.026234
0.035769
-0.106695
0.083160
0.025470
0.026914
-0.211638
0.069879
-0.069268
0.167710
0.135723
0.124748
-0.432768
0.627367
-0.294789
-0.223590
0.157334
-0.097086
0.117970
0.083516
-0.153430
0.064271
-0.385559
-0.306743
0.496253
0.219222
0.013897
-0.056915
0.322594
0.059778
0.003518
-0.042055
0.035018
0.092600
0.052908
-0.083398
0.833533
0.069385
0.022343
-0.078774
0.217669
-0.255248
0.030037
-0.650716
-0.551272
-0.114243
-0.136683
-0.086154
0.303501
0.030803
-0.049029
0.421486
0.011614
-0.270096
0.048298
-0.092159
0.096943
0.125308
-0.102392
-0.291211
0.000596
0.006453
-0.087380
0.080967
-0.261128
0.000107
-0.059379
-0.135907
-0.099555
0.038279
0.488435
-0.321447
0.026189
0.190659
-0.164115
0.329663
-0.367881
0.635842
-0.059968
-0.104309
0.448589
-0.096484
0.093117
-0.271788
0.586642
0.166860
-0.081202
-0.278792
-0.030032
-0.085384
1.010945
0.852680
0.051580
-0.289620
0.072490
-0.031550
-0.196635
0.509228
0.121844
0.009709
0.399399
-0.172570
0.221242
-0.308798
0.087917
-0.312339
-0.073357
-0.180598
-0.112369
-0.076876
-0.527520
-0.082469
0.069951
-0.214531
-0.146495
0.096963
-0.824834
-0.172709
0.042491
-0.179651
-0.232913
-0.179338
0.128247
0.001214
0.081500
-0.225521
-0.463662
-0.180744
0.273033
-0.025573
0.175913
0.025089
-0.105954
-0.307935
0.154022
-0.094137
0.038177
-0.220909
0.626174
-0.831329
-0.251376
-0.056319
-0.054801
0.027272
0.173498
-0.098314
-0.134105
-0.200533
-0.076274
-0.037370
0.118656
-0.206962
-0.075798
-0.258520
-0.546569
-0.285359
0.217802
0.366049
-0.094644
0.053373
-0.105490
-0.163630
-0.082015
-0.127067
0.963002
-0.151718
0.521955
0.292029
-0.177828
0.101949
-0.113433
-0.030350
-0.262132
0.136895
-0.132192
-0.227411
0.118148
0.880339
0.170093
-0.070776
-0.282642
-0.081492
-0.195324
-0.250859
-0.084665
-0.181824
-0.083444
0.827646
-0.022310
-0.370840
-0.194663
-0.182863
-0.303675
0.263519
-0.048612
-0.389838
-0.197684
-0.198019
0.287953
-0.034760
-0.061861
-0.131077
-0.099809
-0.816759
0.002013
0.050709
0.081351
-0.058002
0.123881
-0.244222
-0.120138
0.406289
-0.380908
0.219500
0.100431
-0.169943
-0.171035
0.688529
0.064377
-0.363222
-0.243883
0.099640
0.142792
-0.165116
-0.089235
0.082049
0.178945
0.110989
-0.161992
-0.246058
-0.339587
-0.608950
-0.167400
-0.031447
-0.345330
-0.206611
0.062303
0.179107
0.012482
-0.003570
0.161967
0.044439
-0.161988
0.101136
-0.231163
-0.224277
-0.278330
0.488074
-0.323600
0.055073
-0.190250
-0.126519
-0.027283
-0.073932
0.340324
0.189699
0.016375
0.061678
0.139464
0.275261
-0.023253
0.166084
0.044443
0.078716
0.009241
-0.087464
0.478887
-0.342893
-0.322262
0.512942
-0.014958
0.084542
0.350526
0.445565
-0.014271
0.007564
-0.043282
0.142594
-0.002062
-0.097698
-0.155626
-0.471752
-0.077387
-0.213502
-0.128062
-0.173337
-0.239095
-0.384531
-0.141596
-0.059624
0.001771
0.094297
-0.024256
-0.193857
0.129543
0.137531
-0.079361
-0.244088
-0.188735
-0.287275
-0.120281
0.142111
-0.120796
0.220215
0.203552
-0.001783
0.181177
0.020474
-0.071779
0.224579
-0.063420
0.459722
-0.396280
-0.160245
-0.128954
-0.343734
0.403435
0.413300
0.258426
-0.071576
-0.004889
-0.016670
-0.141370
0.092827
0.119779
-0.000130
-0.000295
0.319243
-0.051360
-0.232288
0.023189
-0.174240
-0.199688
-0.111954
0.037196
-0.029391
0.147828
-0.421917
0.581703
-0.038147
-0.161249
-0.119131
-0.260348
-0.246505
0.101647
-0.250092
0.126104
-0.209065
0.553393
0.039690
-0.016966
-0.270215
-0.014474
-0.162314
-0.047011
-0.127811
-0.167861
0.291057
0.101543
0.026476
-0.184282
0.168610
0.184679
-0.022095
-0.246354
-0.049648
0.058135
-0.161231
-0.199645
-0.048766
0.279030
-0.037242
0.003975
-0.058193
-0.219512
-0.095061
-0.259350
0.008945
0.029612
-0.334109
-0.115768
-0.369228
-0.139218
-0.113984
-0.147866
0.036377
0.053958
0.113243
0.129715
0.059428
-0.000788
0.288397
0.079479
-0.132928
0.305344
-0.005411
-0.093279
0.012951
0.022841
-0.204264
-0.159179
-0.234024
-0.015881
-0.268212
0.231636
-0.143109
-0.071717
-0.245142
0.251890
0.078596
0.200070
0.050899
0.053781
-0.176214
-0.190035
-0.001480
0.128069
0.056398
0.375117
0.442014
0.014684
0.299594
-0.083520
0.072023
0.054621
0.104185
0.060864
0.049083
-0.009118
-0.197339
-0.082144
-0.278286
0.127818
0.657090
-0.056843
-0.036872
0.057655
-0.149672
0.107304
-0.202650
0.234528
0.813389
0.083910
-0.310600
0.446626
-0.034760
0.440604
0.064265
0.177336
0.112023
-0.055442
0.038743
-0.106079
-0.064826
-0.029052
-0.184005
-0.129714
-0.434729
0.216632
-0.127882
-0.068785
-0.204128
0.199894
-0.066735
0.587015
0.638927
-0.081187
-0.180542
-0.062701
0.031421
0.210590
-0.179417
0.095171
-0.215664
0.001049
0.225949
0.115420
-0.043628
-0.239944
0.070727
0.405476
0.184675
-0.252793
0.586196
-0.170865
-0.176713
-0.221797
-0.184864
0.013533
0.038964
-0.091721
-0.030822
-0.125444
0.348872
-0.118420
-0.226246
-0.249850
0.095670
0.212204
-0.209783
0.067112
-0.294780
0.088419
-0.205880
0.371793
0.041225
-0.084106
-0.454375
0.014455
0.005424
0.066935
-0.176886
-0.037781
0.179001
-0.203792
0.905313
-0.103880
0.057583
-0.284123
0.166208
-0.063149
-0.279702
0.086042
0.145746
-0.316009
-0.113967
-0.191687
0.025791
-0.194193
-0.213772
-0.023047
0.106747
0.110841
-0.172961
-0.064523
-0.320537
0.000129
-0.012189
-0.094723
-0.077796
0.095398
-0.287745
-0.048401
-0.082976
-0.209698
0.097642
-0.124458
0.000186
-0.131469
0.114318
0.071239
0.043123
0.244937
-0.316566
-0.009885
-0.148043
-0.299387
0.075677
0.023420
-0.135010
0.231057
-0.203475
-0.216681
-0.076534
-0.104826
0.248892
-0.130760
-0.088099
-0.030756
-0.208269
-0.211218
-0.099831
-0.354854
0.129893
-0.083386
-0.002249
-0.113215
0.133552
-0.142464
-0.014996
-0.171406
0.241057
0.305786
0.224130
0.187771
-0.179267
0.040483
0.335925
0.453218
-0.103034
-0.060931
0.004264
-0.166375
0.225295
0.060681
-0.004496
-0.138285
-0.202194
-0.169812
-0.180034
0.001156
-0.142957
-0.258559
-0.018361
0.208892
-0.004458
-0.126583
-0.124024
0.022549
0.149043
0.254972
0.342959
-0.037385
-0.059316
0.211769
0.197216
-0.095506
-0.213963
0.517792
-0.027222
0.132318
-0.022781
0.291542
-0.040015
-0.263820
0.020466
0.044089
-0.293920
-0.220251
0.162654
-0.064114
0.154678
0.140060
-0.305999
-0.064876
-0.119019
-0.133652
-0.479392
-0.039308
-0.408236
0.215634
-0.137664
-0.232344
-0.059592
0.115584
-0.065361
0.065071
-0.687967
-0.342931
0.037045
-0.103513
-0.087295
-0.359519
-0.055074
0.092689
-0.021263
0.122706
-0.092816
-0.097960
-0.377254
-0.286203
-0.183175
0.013891
0.147685
0.361991
0.011541
0.116513
-0.222428
-0.219269
0.102618
-0.144544
0.134069
0.407835
0.075806
0.060162
-0.001714
0.160525
-0.044243
0.334141
-0.138062
-0.284760
0.075571
-0.033278
-0.048672
-0.052607
0.131145
0.024197
-0.224496
-0.216870
-0.216830
-0.130351
2.658144
-0.170137
0.010611
-0.040142
-0.044203
-0.296957
0.135780
0.199459
-0.308490
0.428590
-0.050602
-0.075546
0.176954
-0.041673
0.146352
-0.020306
-0.248799
-0.041787
-0.165931
0.463062
0.021769
-0.149181
-0.245116
0.010505
0.385092
0.497907
0.076275
0.130579
-0.093053
0.264604
-0.060590
-0.470464
-0.025306
0.179263
-0.290055
0.384833
0.912182
-0.094534
-0.292172
0.337870
0.127189
-0.162203
-0.090473
-0.101214
-0.108667
0.005985
-0.221254
1.036099
-0.170999
-0.204785
-0.088700
-0.064851
-0.236693
-0.127024
-0.213017
-0.123258
-0.080408
0.178623
-0.135870
-0.037618
0.195948
-0.182032
-0.133342
0.147902
0.049473
0.169624
-0.080031
0.041579
0.040215
0.010814
0.051087
-0.031270
-0.011086
-0.099625
-0.040512
0.044201
0.869372
-0.098237
0.132263
0.018893
-0.354609
-0.028298
-0.001411
0.205975
0.052300
0.083682
-0.146316
0.171874
-0.113476
-0.184957
0.120458
-0.353412
0.029978
0.088901
-0.024685
-0.300925
-0.074227
-0.160155
-0.093186
0.156441
0.191785
0.027398
-0.231434
-0.067540
1.455923
-0.231022
-0.237503
0.246198
-0.019672
-0.292798
0.457818
0.041392
0.020879
-0.074859
0.215780
-0.040337
0.079211
0.084394
0.023033
0.087259
0.092801
0.030541
-0.488475
-0.050872
0.091752
-0.159638
-0.188980
0.013408
-0.138171
0.102936
0.086228
0.314574
-0.047366
0.259724
-0.023046
-0.092461
-0.299184
-0.103535
-0.317097
0.312050
-0.351855
-0.128313
-0.270967
0.110776
-0.218141
0.165113
0.085143
-0.042284
-0.199325
0.464593
-0.072058
-0.094528
0.361745
-0.316906
-0.075160
-1.024506
0.152340
-0.276311
0.081029
0.241761
0.004421
-0.186206
0.073459
0.044758
-0.377685
-0.348850
0.089036
0.058022
0.159790
0.362021
-0.104480
-0.112860
-0.148988
0.276460
0.031508
0.170962
-0.038980
-0.011533
-0.225829
0.015589
-0.118323
0.495187
-0.236867
-0.101766
0.024365
-0.051718
0.122276
-0.233621
-0.369108
-0.205990
-0.170748
-0.091067
-0.166991
0.068478
-0.154413
0.030068
0.160771
-0.202713
-0.096815
0.255882
-0.133675
-0.005059
0.235347
-0.263245
-0.279764
0.145081
0.061007
0.051534
0.291960
-0.141900
0.266530
0.062946
-0.194350
0.091375
0.052230
0.071864
0.450062
-0.091875
-0.021663
-0.139317
-0.052492
0.077514
0.081483
0.506856
0.009899
-0.369821
0.272363
-0.102460
0.142331
-0.151445
-0.203517
-0.006069
0.168674
0.041760
0.125829
-0.115069
-0.186706
-0.050620
-0.797526
0.029156
0.550330
-0.399753
-0.003945
-0.026196
-0.026188
-0.161825
-0.166841
0.024551
0.050473
-0.103558
-0.247584
-0.260586
0.103950
-0.006762
-0.249814
-0.047901
0.094876
0.041178
-0.173420
0.022116
-0.192559
-0.026426
0.437560
0.105949
0.196590
0.345643
-0.251912
0.496420
0.020019
-0.218441
0.063575
-0.155882
0.205032
0.243920
-0.042111
-0.119411
0.501959
-0.122162
-0.104644
-0.165934
0.410012
0.030920
-0.300542
0.510720
-0.125013
-0.325904
-0.147793
0.188638
-0.137059
-0.222358
0.187822
0.010674
-0.007441
-0.152440
-0.209438
0.242519
0.223056
0.085028
0.111065
-0.040009
0.023936
0.164790
0.026530
-0.055771
0.295046
-0.091760
-0.288986
0.356214
-0.021869
0.512685
-0.228996
0.366030
0.448740
-0.048878
-0.067310
-0.352910
0.025814
0.130122
-0.177298
-0.229987
-0.170756
-0.157106
-0.090104
0.044307
-0.048769
-0.224217
-0.154409
-0.086483
-0.057156
-0.052318
0.198359
-0.056162
0.056048
-0.108226
0.071965
0.010046
-0.085951
-0.069609
-0.013809
-0.375782
-0.272527
0.118619
0.036402
-0.325019
-0.105853
0.157165
0.082830
-0.333383
0.008597
-0.065476
-0.090056
-0.083534
-0.276083
-0.056279
-0.560263
-0.134324
-0.158553
0.645900
-0.102571
0.535926
0.015545
-0.300388
-0.262230
-0.012473
-0.134189
1.184795
-0.235673
0.102357
0.116189
0.065172
-0.023838
-0.236839
-0.066845
0.093569
0.083996
0.097125
-0.101677
-0.080119
-0.069120
0.012621
-0.494742
-0.156495
-0.152475
-0.151490
-0.267300
-0.015249
0.304809
0.001273
-0.169957
0.026336
-0.103831
-0.018444
-0.165527
0.023841
-0.137123
-0.189282
1.000263
-0.058943
-0.023119
0.313756
0.005824
-0.001578
-0.211681
-0.180022
-0.033191
0.159811
0.267621
0.760862
-0.181372
0.192707
-0.068623
0.230828
-0.130964
0.495220
-0.294457
-0.118228
-0.090607
0.330167
0.205144
0.079939
0.018208
-0.217518
-0.628154
-0.085325
-0.169472
0.118407
-0.088063
0.111447
0.317794
-0.010890
-0.220372
-0.144400
0.176186
-0.219548
0.098178
0.099701
-0.106119
0.012994
0.112813
-0.276615
-0.237662
0.078652
0.027967
0.295793
0.072536
0.423149
-0.001049
-0.104796
0.028994
-0.197786
-0.099555
0.027438
0.161267
0.313735
-0.111882
-0.165177
0.255681
-0.052121
-0.130691
0.166321
0.067535
-0.102293
0.100900
-0.061741
0.125686
0.015571
0.134715
-0.059412
-0.010144
0.739697
-0.146507
-0.102000
-0.366995
0.248545
-0.235376
0.219087
0.014756
-0.173347
0.619901
0.090103
-0.081377
0.687108
0.460565
0.054715
-0.121469
0.178381
-0.191999
-0.157540
-0.148877
0.041337
-0.082407
-0.296909
-0.089012
-0.132939
0.112122
-0.310233
-0.191879
-0.133115
0.219763
0.093161
0.037089
0.007793
-0.227163
0.033445
-0.531188
0.124601
0.015373
-0.027122
-0.232354
0.292205
0.263127
0.030475
-0.070293
-0.034753
-0.248877
-0.215898
-0.041068
-0.303936
-0.217440
-0.604696
-0.088720
-0.037208
-0.013548
0.126965
0.006224
-0.312531
-0.256718
-0.200499
-0.005995
-0.432304
0.419207
-0.215926
-0.049586
-0.010864
-0.250335
-0.223599
0.057321
-0.179624
-0.161051
0.366894
0.071926
-0.065275
0.050745
-0.024995
-0.154813
-0.115020
0.030047
-0.252921
0.064143
-0.142168
0.203069
0.013315
-0.043628
0.078227
-0.161425
0.638276
0.138085
0.298747
-0.009440
-0.762743
-0.088044
0.079406
-0.184568
-0.291162
-0.233142
-0.130937
-0.157649
0.071516
-0.151833
0.558451
0.010143
-0.064353
-0.049496
0.231387
0.147780
0.257723
-0.178159
-0.123471
0.280954
0.554480
-0.058767
0.070288
-0.191731
-0.107083
-0.103536
0.208126
-0.124621
0.396110
-0.242116
-0.172624
-0.153536
-0.345020
0.336711
-0.088753
0.188393
-0.006699
-0.177666
-0.306762
-0.108505
-0.195302
-0.035742
0.049044
0.024835
-0.148180
0.072386
0.181755
-0.177315
-0.028140
-0.111609
-0.064382
-0.137294
0.554400
0.459882
-0.231014
-0.082406
0.082473
0.542998
0.270236
-0.022930
0.197095
-0.083933
-0.114569
-0.479939
0.437917
0.431837
-0.123294
0.085896
-0.151602
-0.293977
0.461716
-0.048158
-0.080202
-0.133598
-0.190770
1.262001
0.261898
-0.033624
-0.129950
-0.226252
-0.006586
0.284337
0.249723
-0.327880
0.140980
-0.213084
0.067469
0.235170
-0.069849
0.081797
0.065021
0.025379
0.125432
0.044623
-0.249672
-0.084234
0.101356
0.076907
0.026798
0.029785
0.136327
-0.128987
0.001804
0.069641
0.143853
0.191063
-0.043746
-0.552322
-0.186954
1.197224
-0.132833
0.366663
0.134644
-0.090539
-0.207978
0.036804
-0.157369
0.033576
0.738121
-0.003348
-0.058297
-0.201063
0.307796
-0.095526
-0.046435
-0.267327
-0.009131
-0.381049
0.010548
-0.023976
0.023189
-0.270953
-0.006204
0.098964
-0.207564
0.156309
-0.259330
-0.172309
0.182175
-0.316702
-0.058738
0.006428
0.652906
1.001549
0.200715
-0.045968
-0.269739
0.055758
0.012099
0.324402
0.412653
-0.120252
0.073204
-0.073964
-0.194305
-0.141699
0.065405
-0.006855
-0.139531
-0.034957
-0.090733
0.245306
0.860770
-0.242913
0.537861
0.078641
-0.028325
-0.066845
0.079771
0.117480
-0.093546
1.223161
0.039697
0.146948
0.130785
-0.052911
0.232006
-0.242476
0.023555
0.545960
0.034708
-0.149028
0.150970
1.130283
-0.063675
0.186611
-0.059868
0.024021
-0.137061
-0.081408
-0.159822
-0.144136
-0.202588
-0.165763
0.125166
0.354579
1.332763
0.621644
0.378274
-0.257651
-0.046104
0.150176
-0.105692
0.251385
0.365888
0.956454
0.007749
-0.095594
-0.131932
-0.119136
0.390616
-0.127472
-0.290298
-0.127946
-0.125080
-0.157273
-0.109828
0.217258
0.817916
-0.086360
-0.141112
0.183032
0.219333
0.081176
-0.183525
-0.107613
0.359289
-0.127199
-0.053904
-0.016208
-0.093367
0.172600
-0.117390
-0.318075
0.132763
-0.094363
-0.319387
0.170622
-0.137377
0.076740
-0.564120
0.070739
-0.061274
-0.117668
0.108394
-0.268153
0.025358
-0.135547
-0.026527
0.478109
0.457001
-0.283823
-0.020564
0.058505
0.140467
-0.263626
-0.041136
0.051209
0.197425
-0.127608
-0.181619
-0.242512
0.361148
-0.051384
-0.002414
-0.211304
-0.047189
-0.223302
0.170436
-0.078053
0.040253
-0.072357
0.034222
-0.160909
0.066704
0.182143
-0.015751
-0.076569
-0.133250
-0.000680
-0.007104
0.102739
0.104049
0.536537
-0.125000
-0.037233
-0.416748
-0.077846
0.008813
-0.212526
-0.235165
0.004070
-0.023577
0.061899
-0.049352
-0.024972
-0.170193
-0.331192
-0.063541
-0.068807
-0.258900
-0.038684
0.015347
-0.167091
-0.179421
0.198524
-0.155146
-0.020722
-0.089100
-0.227756
0.088458
-0.104794
-0.198109
-0.197091
-0.195881
-0.230670
-0.092820
-0.230071
-0.159016
-0.325786
-0.260406
0.146123
-0.018775
0.287750
-0.231720
-0.113346
-0.156934
-0.070043
-0.036193
-0.047583
0.072533
0.002384
-0.083798
0.004015
-0.047556
-0.083079
0.009225
0.531879
-0.011377
-0.392627
-0.191142
0.152282
0.206367
-0.122849
-0.030706
-0.137142
-0.103316
0.766171
-0.191942
0.382614
-0.182468
0.116790
-0.259740
-0.013635
-0.341273
0.216728
-0.145396
-0.059357
0.062846
0.038507
0.280674
-0.175066
-0.076796
0.076096
0.080625
-0.024287
-0.019947
-0.188328
-0.188415
-0.012834
-0.369984
-0.035971
-0.126855
-0.078690
-0.203382
0.572792
-0.020838
0.086727
-0.002430
-0.103140
0.109853
0.343121
-0.309703
-0.121092
-0.218901
0.402281
-0.089073
-0.083544
0.252971
-0.282294
0.149842
0.500034
-0.009439
0.146473
-0.036568
-0.218209
0.039267
-0.284093
-0.108538
0.072733
-0.140854
-0.124211
-0.106900
0.081881
0.105133
-0.047253
-0.032982
-0.008671
0.159230
-0.001350
-0.261157
0.033782
0.304890
-0.086511
0.141979
0.263734
0.197331
-0.224903
-0.114357
0.121887
0.258095
0.649151
0.457567
0.046387
0.000012
-0.089708
0.215927
0.252371
0.036458
0.392465
-0.323442
-0.131955
-0.315122
0.202510
-0.063637
-0.113565
-0.114411
-0.224797
-0.088099
0.124469
0.118547
-0.055319
0.250453
-0.109871
-0.219372
-0.080659
0.139461
-0.096015
-0.413115
-0.179802
0.749921
-0.132174
-0.314973
0.155534
0.111709
-0.366276
0.344687
0.380900
0.155204
0.065808
0.078621
-0.143867
-0.206089
0.097781
-0.028007
0.087254
-0.216134
-0.152265
0.501512
-0.330897
0.140674
-0.080349
-0.066709
-0.006086
-0.189947
-0.246677
-0.030792
0.555778
-0.199038
-0.082595
-0.010129
0.279615
0.689653
0.209609
0.152591
-0.131108
0.073692
-0.195700
-0.055932
-0.222494
0.333131
0.385034
-0.300826
0.057056
-0.163559
-0.294208
0.471543
-0.176637
-0.135662
0.035410
-0.100101
-0.030623
0.018052
-0.101998
-0.145788
-0.191122
-0.229514
0.708580
0.081020
-0.076078
0.047162
0.175374
0.072891
-0.247006
0.079848
0.023262
0.333794
0.010013
-0.086094
-0.182190
-0.562019
-0.053793
0.383902
0.078497
0.430297
-0.115041
-0.196038
-0.088197
-0.078595
0.288763
-0.167403
-0.254238
0.699287
0.132366
0.053231
0.131476
0.123344
-0.410094
-0.068014
0.211008
0.409290
0.244977
-0.226196
-0.250802
-0.160555
-0.214040
-0.086197
0.215687
0.086938
-0.011352
-0.208760
0.237479
-0.118186
0.031685
-0.084462
0.267305
-0.108617
-0.252621
-0.070267
-0.029620
-0.005763
-0.011604
-0.627858
-0.174272
0.066120
-0.248953
0.005292
-0.129973
-0.094991
0.128888
0.025406
0.062560
-0.045868
0.243441
-0.122464
-0.296777
0.200187
0.030901
0.194727
-0.106269
0.224663
0.646021
-0.057507
0.032210
0.260685
0.080969
0.194891
0.418363
0.021500
-0.051981
0.043439
0.409894
0.377465
0.117612
-0.133235
-0.040011
0.263020
0.339208
0.122749
0.120643
0.290607
-0.057034
-0.107759
-0.038938
0.037393
0.744519
0.150462
0.055825
-0.251215
-0.013981
0.120725
0.041884
0.026565
0.354374
0.023024
-0.056639
0.055376
0.211438
-0.022372
0.252162
-0.149786
-0.005973
0.311676
-0.086548
0.430889
-0.088964
-0.464440
-0.125414
-0.028385
0.039975
0.363184
-0.075295
0.067516
-0.241545
-0.331112
-0.071900
0.004210
-0.144925
0.901146
0.435915
-0.103576
0.293960
-0.024385
-0.061695
-0.079502
-0.059659
0.922144
0.142336
-0.066078
0.054272
-0.204628
0.176794
-0.193098
-0.323134
0.091769
0.506533
0.054815
-0.007277
-0.152626
-0.129954
-0.037006
0.151649
-0.380751
0.067242
-0.120807
-0.138662
0.242919
-0.019279
0.227619
0.232087
0.066402
0.120324
-0.011461
-0.217994
-0.131627
0.008374
0.016385
0.096165
-0.226294
-0.183713
-0.432325
-0.006826
-0.001716
0.082400
-0.135074
0.011394
0.079011
-0.210816
-0.080847
0.004600
0.002782
0.122916
0.048901
-0.287434
0.073364
-0.175586
0.243883
0.017977
0.094825
-0.090216
-0.152522
-0.725871
0.146431
-0.114945
0.260650
-0.311379
-0.024825
-0.226319
0.051473
-0.013044
0.069451
0.063578
-0.267310
0.061518
-0.111922
-0.378335
-0.176668
-0.076703
0.052099
-0.023192
-0.001665
0.102326
0.275298
-0.205675
0.151726
0.168883
-0.028022
-0.305479
-0.179241
-0.312681
0.115657
-0.311092
0.168959
-0.192866
-0.190351
0.263824
0.084793
-0.252685
-0.007152
-0.167658
-0.093216
0.598238
-0.210943
-0.041943
0.078692
-0.001531
0.641765
-0.081022
0.186298
0.217538
-0.011682
0.072457
-0.080761
-0.298916
-0.153544
-0.341087
-0.130065
0.139650
-0.271692
-0.038543
-0.158871
-0.166468
-0.058064
-0.491004
1.605477
-0.284061
-0.028970
-0.195028
-0.051889
-0.016155
0.443903
-0.264953
-0.289947
0.287993
0.159626
-0.212913
-0.225778
-0.163436
0.148005
0.009302
0.177878
0.089947
-0.021493
-0.143175
0.168813
-0.019999
0.131489
0.188868
-0.325595
-0.036767
0.040747
-0.293455
-0.522029
-0.060427
0.040236
-0.282951
0.068153
-0.042362
0.167883
-0.399324
-0.538436
-0.059980
-0.130627
0.018372
0.223260
-0.114852
0.118274
0.016264
0.083917
0.035121
0.007879
-0.107060
0.147339
0.063971
0.065938
0.318873
0.138107
0.047875
-0.066063
-0.144334
-0.193082
-0.068886
0.231647
-0.100145
0.493807
0.160056
0.657180
-0.071806
-0.045400
0.231795
-0.275095
-0.074167
-0.032149